Program Version,EnergyPlus, Version 24.1.0-9d7789a3ac, YMD=2024.08.12 16:17
1,5,Environment Title[],Latitude[deg],Longitude[deg],Time Zone[],Elevation[m]
2,8,Day of Simulation[],Month[],Day of Month[],DST Indicator[1=yes 0=no],Hour[],StartMinute[],EndMinute[],DayType
3,5,Cumulative Day of Simulation[],Month[],Day of Month[],DST Indicator[1=yes 0=no],DayType  ! When Daily Meters Requested
4,2,Cumulative Days of Simulation[],Month[]  ! When Monthly Meters Requested
5,1,Cumulative Days of Simulation[] ! When Run Period Meters Requested
6,1,Calendar Year of Simulation[] ! When Annual Meters Requested
12,1,Electricity:Facility [J] !Hourly
2773,1,Fans:Electricity [J] !Hourly
3016,1,Cooling:Electricity [J] !Hourly
3149,1,Heating:Electricity [J] !Hourly
60,1,InteriorLights:Electricity [J] !Hourly
688,1,InteriorEquipment:Electricity [J] !Hourly
3098,1,NaturalGas:Facility [J] !Hourly
3122,1,Heating:NaturalGas [J] !Hourly
3213,1,Water Heater:WaterSystems:NaturalGas [J] !Hourly
14,9,Electricity:Facility [J] !Monthly [Value,Min,Day,Hour,Minute,Max,Day,Hour,Minute]
3100,9,NaturalGas:Facility [J] !Monthly [Value,Min,Day,Hour,Minute,Max,Day,Hour,Minute]
2864,9,Water:Facility [m3] !Monthly [Value,Min,Day,Hour,Minute,Max,Day,Hour,Minute]
1138,9,EnergyTransfer:Facility [J] !Monthly [Value,Min,Day,Hour,Minute,Max,Day,Hour,Minute]
2467,9,ElectricityPurchased:Facility [J] !Monthly [Value,Min,Day,Hour,Minute,Max,Day,Hour,Minute]
2516,9,ElectricitySurplusSold:Facility [J] !Monthly [Value,Min,Day,Hour,Minute,Max,Day,Hour,Minute]
2565,9,ElectricityNet:Facility [J] !Monthly [Value,Min,Day,Hour,Minute,Max,Day,Hour,Minute]
4031,9,Carbon Equivalent:Facility [kg] !Monthly [Value,Min,Day,Hour,Minute,Max,Day,Hour,Minute]
2392,9,PlantLoopHeatingDemand:Facility [J] !Monthly [Value,Min,Day,Hour,Minute,Max,Day,Hour,Minute]
2715,9,PlantLoopCoolingDemand:Facility [J] !Monthly [Value,Min,Day,Hour,Minute,Max,Day,Hour,Minute]
2913,9,MainsWater:Facility [m3] !Monthly [Value,Min,Day,Hour,Minute,Max,Day,Hour,Minute]
3709,9,WaterEnvironmentalFactors:Facility [L] !Monthly [Value,Min,Day,Hour,Minute,Max,Day,Hour,Minute]
3359,9,Source:Facility [J] !Monthly [Value,Min,Day,Hour,Minute,Max,Day,Hour,Minute]
3509,9,SO2:Facility [kg] !Monthly [Value,Min,Day,Hour,Minute,Max,Day,Hour,Minute]
3459,9,NOx:Facility [kg] !Monthly [Value,Min,Day,Hour,Minute,Max,Day,Hour,Minute]
3484,9,N2O:Facility [kg] !Monthly [Value,Min,Day,Hour,Minute,Max,Day,Hour,Minute]
3534,9,PM:Facility [kg] !Monthly [Value,Min,Day,Hour,Minute,Max,Day,Hour,Minute]
3584,9,PM2.5:Facility [kg] !Monthly [Value,Min,Day,Hour,Minute,Max,Day,Hour,Minute]
3559,9,PM10:Facility [kg] !Monthly [Value,Min,Day,Hour,Minute,Max,Day,Hour,Minute]
3409,9,CO:Facility [kg] !Monthly [Value,Min,Day,Hour,Minute,Max,Day,Hour,Minute]
3384,9,CO2:Facility [kg] !Monthly [Value,Min,Day,Hour,Minute,Max,Day,Hour,Minute]
3434,9,CH4:Facility [kg] !Monthly [Value,Min,Day,Hour,Minute,Max,Day,Hour,Minute]
3609,9,NH3:Facility [kg] !Monthly [Value,Min,Day,Hour,Minute,Max,Day,Hour,Minute]
3634,9,NMVOC:Facility [kg] !Monthly [Value,Min,Day,Hour,Minute,Max,Day,Hour,Minute]
3659,9,Hg:Facility [kg] !Monthly [Value,Min,Day,Hour,Minute,Max,Day,Hour,Minute]
3684,9,Pb:Facility [kg] !Monthly [Value,Min,Day,Hour,Minute,Max,Day,Hour,Minute]
3734,9,Nuclear High:Facility [kg] !Monthly [Value,Min,Day,Hour,Minute,Max,Day,Hour,Minute]
3759,9,Nuclear Low:Facility [m3] !Monthly [Value,Min,Day,Hour,Minute,Max,Day,Hour,Minute]
End of Data Dictionary
1,RUNPERIOD 1,  41.78, -87.75,  -6.00, 190.00
2,1, 1, 1, 0, 1, 0.00,60.00,Holiday
12,1038229721.1781361
60,134569963.08410802
688,538279852.336432
2773,93826644.56062818
3016,0.0
3098,3510113666.4109783
3122,3502030804.16076
3149,0.0
3213,8082862.250218145
2,1, 1, 1, 0, 2, 0.00,60.00,Holiday
12,1023205005.1451678
60,134569963.08410802
688,538279852.336432
2773,78188870.46719015
3016,0.0
3098,3184685512.007978
3122,3176602361.5058174
3149,0.0
3213,8083150.5021603275
2,1, 1, 1, 0, 3, 0.00,60.00,Holiday
12,1045527647.7079864
60,134569963.08410802
688,538279852.336432
2773,97736088.08398768
3016,0.0
3098,4248293133.3319864
3122,4240210517.436841
3149,0.0
3213,8082615.895145296
2,1, 1, 1, 0, 4, 0.00,60.00,Holiday
12,1023224134.7935469
60,134569963.08410802
688,538279852.336432
2773,78188870.46719015
3016,0.0
3098,3180224206.487203
3122,3172140963.6943893
3149,0.0
3213,8083242.792813871
2,1, 1, 1, 0, 5, 0.00,60.00,Holiday
12,1089570994.3515456
60,134569963.08410802
688,538279852.336432
2773,97736088.08398768
3016,0.0
3098,4278152124.2725267
3122,4270069198.3123274
3149,0.0
3213,8082925.9601993775
2,1, 1, 1, 0, 6, 0.00,60.00,Holiday
12,1155258272.3726802
60,134569963.08410802
688,538279852.336432
2773,78188870.46719015
3016,0.0
3098,3198857651.831352
3122,3190763376.3534355
3149,0.0
3213,8094275.477916348
2,1, 1, 1, 0, 7, 0.00,60.00,Holiday
12,1353666843.9533901
60,134569963.08410802
688,538279852.336432
2773,97736088.08398768
3016,0.0
3098,4321446768.4145565
3122,4313363566.495105
3149,0.0
3213,8083201.919452046
2,1, 1, 1, 0, 8, 0.00,60.00,Holiday
12,1271333710.5000312
60,134569963.08410802
688,538279852.336432
2773,78188870.46719015
3016,0.0
3098,3151019529.259587
3122,3142937272.3952413
3149,0.0
3213,8082256.864346096
2,1, 1, 1, 0, 9, 0.00,60.00,Holiday
12,1217807004.0753653
60,134569963.08410802
688,538279852.336432
2773,97736088.08398768
3016,0.0
3098,3556954344.129102
3122,3548871240.7717643
3149,0.0
3213,8083103.35733809
2,1, 1, 1, 0,10, 0.00,60.00,Holiday
12,1063131358.5264397
60,134569963.08410802
688,538279852.336432
2773,78188870.46719015
3016,0.0
3098,2205088002.5131865
3122,2197005436.6981015
3149,0.0
3213,8082565.815085039
2,1, 1, 1, 0,11, 0.00,60.00,Holiday
12,907353909.4950763
60,134569963.08410802
688,538279852.336432
2773,97736088.08398768
3016,0.0
3098,2501152569.539001
3122,2493069376.525931
3149,0.0
3213,8083193.013070049
2,1, 1, 1, 0,12, 0.00,60.00,Holiday
12,886091993.2035229
60,134569963.08410802
688,538279852.336432
2773,78188870.46719015
3016,0.0
3098,1702018360.0856838
3122,1685909780.3497772
3149,0.0
3213,16108579.73590657
2,1, 1, 1, 0,13, 0.00,60.00,Holiday
12,906526072.8923233
60,134569963.08410802
688,538279852.336432
2773,97736088.08398768
3016,0.0
3098,2284069464.7969337
3122,2275979333.00673
3149,0.0
3213,8090131.790203427
2,1, 1, 1, 0,14, 0.00,60.00,Holiday
12,885652272.4680502
60,134569963.08410802
688,538279852.336432
2773,78188870.46719015
3016,0.0
3098,1737006266.9752533
3122,1712845429.483864
3149,0.0
3213,24160837.49138919
2,1, 1, 1, 0,15, 0.00,60.00,Holiday
12,906067290.514458
60,134569963.08410802
688,538279852.336432
2773,97736088.08398768
3016,0.0
3098,2371049229.0540013
3122,2362958602.847229
3149,0.0
3213,8090626.206772433
2,1, 1, 1, 0,16, 0.00,60.00,Holiday
12,885684886.4918486
60,134569963.08410802
688,538279852.336432
2773,78188870.46719015
3016,0.0
3098,1865358930.229054
3122,1857275687.7663116
3149,0.0
3213,8083242.462742442
2,1, 1, 1, 0,17, 0.00,60.00,Holiday
12,1230321578.1260762
60,134569963.08410802
688,538279852.336432
2773,97736088.08398768
3016,0.0
3098,2665689218.901375
3122,2657606731.8189106
3149,0.0
3213,8082487.0824646875
2,1, 1, 1, 0,18, 0.00,60.00,Holiday
12,1415698249.3689308
60,134569963.08410802
688,538279852.336432
2773,78188870.46719015
3016,0.0
3098,2028443257.079444
3122,2020360142.171955
3149,0.0
3213,8083114.907489022
2,1, 1, 1, 0,19, 0.00,60.00,Holiday
12,1436771546.2710302
60,134569963.08410802
688,538279852.336432
2773,97736088.08398768
3016,0.0
3098,2897390392.5508223
3122,2889307595.6958666
3149,0.0
3213,8082796.854955684
2,1, 1, 1, 0,20, 0.00,60.00,Holiday
12,1327970111.7551987
60,134569963.08410802
688,538279852.336432
2773,78188870.46719015
3016,0.0
3098,2117955770.3312914
3122,2109872566.267041
3149,0.0
3213,8083204.064250357
2,1, 1, 1, 0,21, 0.00,60.00,Holiday
12,1348674982.0726166
60,134569963.08410802
688,538279852.336432
2773,97736088.08398768
3016,0.0
3098,2849109902.782113
3122,2841026796.281326
3149,0.0
3213,8083106.500787362
2,1, 1, 1, 0,22, 0.00,60.00,Holiday
12,1239893884.5392787
60,134569963.08410802
688,538279852.336432
2773,78188870.46719015
3016,0.0
3098,2115693347.2364473
3122,2099577675.8583078
3149,0.0
3213,16115671.378139447
2,1, 1, 1, 0,23, 0.00,60.00,Holiday
12,1172839937.276294
60,134569963.08410802
688,538279852.336432
2773,97736088.08398768
3016,0.0
3098,2935232524.769556
3122,2927149402.85446
3149,0.0
3213,8083121.915096273
2,1, 1, 1, 0,24, 0.00,60.00,Holiday
12,1064104867.7454393
60,134569963.08410802
688,538279852.336432
2773,78188870.46719015
3016,0.0
3098,2199310271.03558
3122,2191227686.5412555
3149,0.0
3213,8082584.494324691
2,2, 1, 2, 0, 1, 0.00,60.00,Monday
12,1220678611.491984
60,134569963.08410802
688,717706469.7819098
2773,97736088.08398768
3016,0.0
3098,3053210596.374482
3122,3045124702.553826
3149,0.0
3213,8085893.820656593
2,2, 1, 2, 0, 2, 0.00,60.00,Monday
12,1199864614.7012079
60,134569963.08410802
688,717706469.7819098
2773,78188870.46719015
3016,0.0
3098,2269375490.3797646
3122,2261288458.2697515
3149,0.0
3213,8087032.110013013
2,2, 1, 2, 0, 3, 0.00,60.00,Monday
12,1220886449.485237
60,134569963.08410802
688,717706469.7819098
2773,97736088.08398768
3016,0.0
3098,3073724575.090389
3122,3057622790.3834877
3149,0.0
3213,16101784.70690105
2,2, 1, 2, 0, 4, 0.00,60.00,Monday
12,1199830101.0529315
60,134569963.08410802
688,717706469.7819098
2773,78188870.46719015
3016,0.0
3098,2246722017.7811346
3122,2238634996.641176
3149,0.0
3213,8087021.13995869
2,2, 1, 2, 0, 5, 0.00,60.00,Monday
12,1264570848.1746428
60,134569963.08410802
688,717706469.7819098
2773,97736088.08398768
3016,0.0
3098,2919585647.692526
3122,2911499691.594699
3149,0.0
3213,8085956.097827429
2,2, 1, 2, 0, 6, 0.00,60.00,Monday
12,1465870671.1655073
60,269139926.16821605
688,717706469.7819098
2773,78188870.46719015
3016,0.0
3098,2039002055.9964225
3122,2022877792.142421
3149,0.0
3213,16124263.854001455
2,2, 1, 2, 0, 7, 0.00,60.00,Monday
12,1710803710.6518338
60,269139926.16821605
688,717706469.7819098
2773,122351975.09422874
3016,0.0
3098,9467827937.718676
3122,9451711599.728863
3149,0.0
3213,16116337.989812043
2,2, 1, 2, 0, 8, 0.00,60.00,Monday
12,2182824217.5938663
60,807419778.5046484
688,717706469.7819098
2773,122351975.09422874
3016,0.0
3098,8895998523.933365
3122,8863665314.57457
3149,0.0
3213,32333209.358794514
2,2, 1, 2, 0, 9, 0.00,60.00,Monday
12,4615832686.426761
60,2422259335.513945
688,1614839557.0092962
2773,122351975.09422874
3016,0.0
3098,7315413137.461315
3122,7250328918.84017
3149,0.0
3213,65084218.62114503
2,2, 1, 2, 0,10, 0.00,60.00,Monday
12,4480176037.577609
60,2422259335.513945
688,1614839557.0092962
2773,122351975.09422874
3016,0.0
3098,6174063982.746747
3122,6100749652.192053
3149,0.0
3213,73314330.55469508
2,2, 1, 2, 0,11, 0.00,60.00,Monday
12,4299754632.816132
60,2422259335.513945
688,1614839557.0092962
2773,122351975.09422874
3016,0.0
3098,5094933815.400809
3122,5021593276.89853
3149,0.0
3213,73340538.5022789
2,2, 1, 2, 0,12, 0.00,60.00,Monday
12,4297541539.025493
60,2422259335.513945
688,1614839557.0092962
2773,122351975.09422874
3016,0.0
3098,4298324613.675854
3122,4216530731.6643524
3149,0.0
3213,81793882.01150194
2,2, 1, 2, 0,13, 0.00,60.00,Monday
12,4118033359.4655666
60,2422259335.513945
688,1435412939.5638196
2773,122351975.09422874
3016,0.0
3098,4333291534.849985
3122,4226464820.655487
3149,0.0
3213,106826714.19449756
2,2, 1, 2, 0,14, 0.00,60.00,Monday
12,4295810360.263964
60,2422259335.513945
688,1614839557.0092962
2773,122351975.09422874
3016,0.0
3098,3518965701.0795135
3122,3420512203.0666323
3149,0.0
3213,98453498.01288095
2,2, 1, 2, 0,15, 0.00,60.00,Monday
12,4295642133.658594
60,2422259335.513945
688,1614839557.0092962
2773,122351975.09422874
3016,0.0
3098,3562987330.3088503
3122,3497932847.2018266
3149,0.0
3213,65054483.10702331
2,2, 1, 2, 0,16, 0.00,60.00,Monday
12,4295233765.979001
60,2422259335.513945
688,1614839557.0092962
2773,122351975.09422874
3016,0.0
3098,3288016781.5984926
3122,3231120027.136653
3149,0.0
3213,56896754.46183948
2,2, 1, 2, 0,17, 0.00,60.00,Monday
12,4618775476.240012
60,2422259335.513945
688,1614839557.0092962
2773,122351975.09422874
3016,0.0
3098,3116209885.2876954
3122,3034523268.507778
3149,0.0
3213,81686616.77991752
2,2, 1, 2, 0,18, 0.00,60.00,Monday
12,4107725171.2780514
60,1883979483.1775124
688,1435412939.5638196
2773,122351975.09422874
3016,0.0
3098,3666361422.3811483
3122,3617741930.7430086
3149,0.0
3213,48619491.63813954
2,2, 1, 2, 0,19, 0.00,60.00,Monday
12,3211701614.3837233
60,1345699630.8410807
688,1076559704.672864
2773,122351975.09422874
3016,0.0
3098,4289792379.0597057
3122,4249356901.59128
3149,0.0
3213,40435477.468425326
2,2, 1, 2, 0,20, 0.00,60.00,Monday
12,3123380772.6714487
60,1345699630.8410807
688,1076559704.672864
2773,122351975.09422874
3016,0.0
3098,3975227025.597403
3122,3951002986.462301
3149,0.0
3213,24224039.13510251
2,2, 1, 2, 0,21, 0.00,60.00,Monday
12,2406756852.0398045
60,807419778.5046484
688,897133087.2273873
2773,122351975.09422874
3016,0.0
3098,4500116875.2932415
3122,4467813076.293036
3149,0.0
3213,32303799.000204787
2,2, 1, 2, 0,22, 0.00,60.00,Monday
12,2318605451.2395787
60,807419778.5046484
688,897133087.2273873
2773,122351975.09422874
3016,0.0
3098,4273194684.549
3122,4257072962.694242
3149,0.0
3213,16121721.854758278
2,2, 1, 2, 0,23, 0.00,60.00,Monday
12,1384597088.4067247
60,269139926.16821605
688,717706469.7819098
2773,0.0
3016,0.0
3098,8087022.527969775
3122,0.0
3149,0.0
3213,8087022.527969775
2,2, 1, 2, 0,24, 0.00,60.00,Monday
12,1166894189.8660483
60,134569963.08410802
688,717706469.7819098
2773,4764848.036981089
3016,0.0
3098,88125557.31934273
3122,72024770.85817981
3149,0.0
3213,16100786.461162921
2,3, 1, 3, 0, 1, 0.00,60.00,Tuesday
12,1173951122.053838
60,134569963.08410802
688,717706469.7819098
2773,55409371.68526039
3016,0.0
3098,384716446.753226
3122,376629416.2992111
3149,0.0
3213,8087030.454014907
2,3, 1, 3, 0, 2, 0.00,60.00,Tuesday
12,1192164787.348201
60,134569963.08410802
688,717706469.7819098
2773,73349734.68734929
3016,0.0
3098,657655345.2172561
3122,649568286.2554092
3149,0.0
3213,8087058.961846731
2,3, 1, 3, 0, 3, 0.00,60.00,Tuesday
12,1207172089.8313975
60,134569963.08410802
688,717706469.7819098
2773,88113532.33145079
3016,0.0
3098,919945679.1564513
3122,911858596.130011
3149,0.0
3213,8087083.026440288
2,3, 1, 3, 0, 4, 0.00,60.00,Tuesday
12,1193686254.50866
60,134569963.08410802
688,717706469.7819098
2773,74554875.64838076
3016,0.0
3098,1001099619.0896181
3122,984998942.0034063
3149,0.0
3213,16100677.086211737
2,3, 1, 3, 0, 5, 0.00,60.00,Tuesday
12,1259698249.4761333
60,134569963.08410802
688,717706469.7819098
2773,96147805.40499398
3016,0.0
3098,1341971346.1340432
3122,1333884460.1463542
3149,0.0
3213,8086885.987689158
2,3, 1, 3, 0, 6, 0.00,60.00,Tuesday
12,1466157226.1097608
60,269139926.16821605
688,717706469.7819098
2773,79777153.14618385
3016,0.0
3098,1460545017.789825
3122,1444420481.9701045
3149,0.0
3213,16124535.819720361
2,3, 1, 3, 0, 7, 0.00,60.00,Tuesday
12,1701659389.5482955
60,269139926.16821605
688,717706469.7819098
2773,122351975.09422874
3016,0.0
3098,7723965671.646325
3122,7707849879.748292
3149,0.0
3213,16115791.898032311
2,3, 1, 3, 0, 8, 0.00,60.00,Tuesday
12,2174048409.424278
60,807419778.5046484
688,717706469.7819098
2773,122351975.09422874
3016,0.0
3098,7028794526.738482
3122,6996459836.7762575
3149,0.0
3213,32334689.962224968
2,3, 1, 3, 0, 9, 0.00,60.00,Tuesday
12,4605420864.555187
60,2422259335.513945
688,1614839557.0092962
2773,122351975.09422874
3016,0.0
3098,4450856909.300759
3122,4385771790.136148
3149,0.0
3213,65085119.164610565
2,3, 1, 3, 0,10, 0.00,60.00,Tuesday
12,4472537945.301627
60,2422259335.513945
688,1614839557.0092962
2773,122351975.09422874
3016,0.0
3098,4119169076.7189837
3122,4045849611.907091
3149,0.0
3213,73319464.81189246
2,3, 1, 3, 0,11, 0.00,60.00,Tuesday
12,4295777216.821204
60,2422259335.513945
688,1614839557.0092962
2773,122351975.09422874
3016,0.0
3098,3595885707.069074
3122,3530689824.7127
3149,0.0
3213,65195882.356374525
2,3, 1, 3, 0,12, 0.00,60.00,Tuesday
12,4295166379.34302
60,2422259335.513945
688,1614839557.0092962
2773,122351975.09422874
3016,0.0
3098,3171893004.653894
3122,3081918843.852956
3149,0.0
3213,89974160.80093819
2,3, 1, 3, 0,13, 0.00,60.00,Tuesday
12,4115725669.5068803
60,2422259335.513945
688,1435412939.5638196
2773,122351975.09422874
3016,0.0
3098,3224674985.4399686
3122,3117847501.9973216
3149,0.0
3213,106827483.44264698
2,3, 1, 3, 0,14, 0.00,60.00,Tuesday
12,4294537682.529372
60,2422259335.513945
688,1614839557.0092962
2773,122351975.09422874
3016,0.0
3098,2734172672.4348793
3122,2635717040.407496
3149,0.0
3213,98455632.027383
2,3, 1, 3, 0,15, 0.00,60.00,Tuesday
12,4294397301.359457
60,2422259335.513945
688,1614839557.0092962
2773,122351975.09422874
3016,0.0
3098,2629751562.701559
3122,2564693081.836971
3149,0.0
3213,65058480.864588045
2,3, 1, 3, 0,16, 0.00,60.00,Tuesday
12,4294345010.8258295
60,2422259335.513945
688,1614839557.0092962
2773,122351975.09422874
3016,0.0
3098,2587989216.236596
3122,2531090669.84764
3149,0.0
3213,56898546.38895604
2,3, 1, 3, 0,17, 0.00,60.00,Tuesday
12,4618284064.020611
60,2422259335.513945
688,1614839557.0092962
2773,122351975.09422874
3016,0.0
3098,2689583259.8599205
3122,2607892039.179718
3149,0.0
3213,81691220.6802021
2,3, 1, 3, 0,18, 0.00,60.00,Tuesday
12,4106743841.6934013
60,1883979483.1775124
688,1435412939.5638196
2773,122351975.09422874
3016,0.0
3098,2877574326.61235
3122,2828952296.496349
3149,0.0
3213,48622030.11600109
2,3, 1, 3, 0,19, 0.00,60.00,Tuesday
12,3210127851.691742
60,1345699630.8410807
688,1076559704.672864
2773,122351975.09422874
3016,0.0
3098,3278531150.3687105
3122,3238090784.9020896
3149,0.0
3213,40440365.46662131
2,3, 1, 3, 0,20, 0.00,60.00,Tuesday
12,3122278553.576856
60,1345699630.8410807
688,1076559704.672864
2773,122351975.09422874
3016,0.0
3098,3378032043.23791
3122,3353806663.2963233
3149,0.0
3213,24225379.94158607
2,3, 1, 3, 0,21, 0.00,60.00,Tuesday
12,2405490004.9107175
60,807419778.5046484
688,897133087.2273873
2773,122351975.09422874
3016,0.0
3098,4064125134.052672
3122,4031819314.400374
3149,0.0
3213,32305819.652297653
2,3, 1, 3, 0,22, 0.00,60.00,Tuesday
12,2317717448.1684546
60,807419778.5046484
688,897133087.2273873
2773,122351975.09422874
3016,0.0
3098,4169632887.705283
3122,4153510208.9181066
3149,0.0
3213,16122678.787175946
2,3, 1, 3, 0,23, 0.00,60.00,Tuesday
12,1387066280.9927106
60,269139926.16821605
688,717706469.7819098
2773,2382424.0184905445
3016,0.0
3098,85624538.14413883
3122,69522637.22085333
3149,0.0
3213,16101900.923285497
2,3, 1, 3, 0,24, 0.00,60.00,Tuesday
12,1178484359.6549308
60,134569963.08410802
688,717706469.7819098
2773,16164378.909831908
3016,0.0
3098,229759470.6486106
3122,221673112.16460532
3149,0.0
3213,8086358.484005281
2,4, 1, 4, 0, 1, 0.00,60.00,Wednesday
12,1208723466.1423469
60,134569963.08410802
688,717706469.7819098
2773,89701815.01044449
3016,0.0
3098,788839645.240599
3122,780752641.2802217
3149,0.0
3213,8087003.960377285
2,4, 1, 4, 0, 2, 0.00,60.00,Wednesday
12,1190862108.7669833
60,134569963.08410802
688,717706469.7819098
2773,71761452.00835559
3016,0.0
3098,876591751.8621665
3122,868504708.4030341
3149,0.0
3213,8087043.4591325205
2,4, 1, 4, 0, 3, 0.00,60.00,Wednesday
12,1209263956.8824117
60,134569963.08410802
688,717706469.7819098
2773,89701815.01044449
3016,0.0
3098,1242647546.5801249
3122,1226546208.6514497
3149,0.0
3213,16101337.928675026
2,4, 1, 4, 0, 4, 0.00,60.00,Wednesday
12,1197123827.4394426
60,134569963.08410802
688,717706469.7819098
2773,77546128.62130669
3016,0.0
3098,1206047709.5610936
3122,1197960559.6822014
3149,0.0
3213,8087149.87889216
2,4, 1, 4, 0, 5, 0.00,60.00,Wednesday
12,1261832234.8872707
60,134569963.08410802
688,717706469.7819098
2773,97736088.08398768
3016,0.0
3098,1557058406.2800574
3122,1548971489.363635
3149,0.0
3213,8086916.916422008
2,4, 1, 4, 0, 6, 0.00,60.00,Wednesday
12,1464694609.3082523
60,269139926.16821605
688,717706469.7819098
2773,78188870.46719015
3016,0.0
3098,1388115597.364284
3122,1371991089.1344457
3149,0.0
3213,16124508.22983846
2,4, 1, 4, 0, 7, 0.00,60.00,Wednesday
12,1698294971.9122956
60,269139926.16821605
688,717706469.7819098
2773,122351975.09422874
3016,0.0
3098,7131386798.090346
3122,7115269858.187404
3149,0.0
3213,16116939.902942225
2,4, 1, 4, 0, 8, 0.00,60.00,Wednesday
12,2171448269.505839
60,807419778.5046484
688,717706469.7819098
2773,122351975.09422874
3016,0.0
3098,6324672328.095532
3122,6292334596.465942
3149,0.0
3213,32337731.62958907
2,4, 1, 4, 0, 9, 0.00,60.00,Wednesday
12,4604031044.745923
60,2422259335.513945
688,1614839557.0092962
2773,122351975.09422874
3016,0.0
3098,3591136480.9068713
3122,3526044034.8770733
3149,0.0
3213,65092446.02979762
2,4, 1, 4, 0,10, 0.00,60.00,Wednesday
12,4470991577.426547
60,2422259335.513945
688,1614839557.0092962
2773,122351975.09422874
3016,0.0
3098,3037296757.4381595
3122,2963976980.0273657
3149,0.0
3213,73319777.41079418
2,4, 1, 4, 0,11, 0.00,60.00,Wednesday
12,4294474987.349258
60,2422259335.513945
688,1614839557.0092962
2773,122351975.09422874
3016,0.0
3098,2686860634.545114
3122,2613512492.5443635
3149,0.0
3213,73348142.00075068
2,4, 1, 4, 0,12, 0.00,60.00,Wednesday
12,4294102003.892021
60,2422259335.513945
688,1614839557.0092962
2773,122351975.09422874
3016,0.0
3098,2413985541.6975646
3122,2332179111.8613954
3149,0.0
3213,81806429.83616906
2,4, 1, 4, 0,13, 0.00,60.00,Wednesday
12,4114548345.072724
60,2422259335.513945
688,1435412939.5638196
2773,122351975.09422874
3016,0.0
3098,2347238199.6019926
3122,2240403987.236349
3149,0.0
3213,106834212.36564362
2,4, 1, 4, 0,14, 0.00,60.00,Wednesday
12,4293592493.9697914
60,2422259335.513945
688,1614839557.0092962
2773,122351975.09422874
3016,0.0
3098,2028767148.3100626
3122,1930289272.6271698
3149,0.0
3213,98477875.68289298
2,4, 1, 4, 0,15, 0.00,60.00,Wednesday
12,4293562956.6888466
60,2422259335.513945
688,1614839557.0092962
2773,122351975.09422874
3016,0.0
3098,2022641721.4666667
3122,1957586374.6614552
3149,0.0
3213,65055346.80521164
2,4, 1, 4, 0,16, 0.00,60.00,Wednesday
12,4293652902.9106693
60,2422259335.513945
688,1614839557.0092962
2773,122351975.09422874
3016,0.0
3098,2090806309.4495697
3122,2033902791.2767713
3149,0.0
3213,56903518.172798574
2,4, 1, 4, 0,17, 0.00,60.00,Wednesday
12,4617888521.466636
60,2422259335.513945
688,1614839557.0092962
2773,122351975.09422874
3016,0.0
3098,2438134996.598173
3122,2356445415.5621176
3149,0.0
3213,81689581.03605558
2,4, 1, 4, 0,18, 0.00,60.00,Wednesday
12,4106804686.2442403
60,1883979483.1775124
688,1435412939.5638196
2773,122351975.09422874
3016,0.0
3098,2954345025.251384
3122,2905710621.335213
3149,0.0
3213,48634403.91617099
2,4, 1, 4, 0,19, 0.00,60.00,Wednesday
12,3210534444.3184066
60,1345699630.8410807
688,1076559704.672864
2773,122351975.09422874
3016,0.0
3098,3532492065.5878344
3122,3492054792.715276
3149,0.0
3213,40437272.87255857
2,4, 1, 4, 0,20, 0.00,60.00,Wednesday
12,3122820686.7575808
60,1345699630.8410807
688,1076559704.672864
2773,122351975.09422874
3016,0.0
3098,3662519111.794738
3122,3630244980.7786813
3149,0.0
3213,32274131.016055934
2,4, 1, 4, 0,21, 0.00,60.00,Wednesday
12,2405682156.0155277
60,807419778.5046484
688,897133087.2273873
2773,122351975.09422874
3016,0.0
3098,4097003106.863372
3122,4064697747.303137
3149,0.0
3213,32305359.560235344
2,4, 1, 4, 0,22, 0.00,60.00,Wednesday
12,2317998304.294036
60,807419778.5046484
688,897133087.2273873
2773,122351975.09422874
3016,0.0
3098,4315914583.652584
3122,4299792390.5280485
3149,0.0
3213,16122193.124535073
2,4, 1, 4, 0,23, 0.00,60.00,Wednesday
12,1391740016.141264
60,269139926.16821605
688,717706469.7819098
2773,6976408.982270999
3016,0.0
3098,137310206.55471173
3122,129223461.29794005
3149,0.0
3213,8086745.2567716995
2,4, 1, 4, 0,24, 0.00,60.00,Wednesday
12,1253013077.1330163
60,134569963.08410802
688,717706469.7819098
2773,89701815.01044449
3016,0.0
3098,1012246911.2902771
3122,1004159815.4781374
3149,0.0
3213,8087095.812139783
2,5, 1, 5, 0, 1, 0.00,60.00,Thursday
12,1198845113.4674976
60,134569963.08410802
688,717706469.7819098
2773,79152983.23601533
3016,0.0
3098,1265069894.7829638
3122,1256982739.8013942
3149,0.0
3213,8087154.981569413
2,5, 1, 5, 0, 2, 0.00,60.00,Thursday
12,1216513015.4613435
60,134569963.08410802
688,717706469.7819098
2773,96129233.46927905
3016,0.0
3098,1681035195.7417626
3122,1664933199.048798
3149,0.0
3213,16101996.692964915
2,5, 1, 5, 0, 3, 0.00,60.00,Thursday
12,1200130892.8847814
60,134569963.08410802
688,717706469.7819098
2773,79795725.08189878
3016,0.0
3098,1537265312.5677083
3122,1529178275.0221994
3149,0.0
3213,8087037.545508767
2,5, 1, 5, 0, 4, 0.00,60.00,Thursday
12,1217431974.206056
60,134569963.08410802
688,717706469.7819098
2773,96129233.46927905
3016,0.0
3098,2057925502.735189
3122,2049838418.8522978
3149,0.0
3213,8087083.882891022
2,5, 1, 5, 0, 5, 0.00,60.00,Thursday
12,1246068120.2766025
60,134569963.08410802
688,717706469.7819098
2773,79795725.08189878
3016,0.0
3098,2279732431.963444
3122,2271645301.782077
3149,0.0
3213,8087130.181367722
2,5, 1, 5, 0, 6, 0.00,60.00,Thursday
12,1486601498.5346346
60,269139926.16821605
688,717706469.7819098
2773,96129233.46927905
3016,0.0
3098,2834028147.351484
3122,2817903517.1604633
3149,0.0
3213,16124630.19102016
2,5, 1, 5, 0, 7, 0.00,60.00,Thursday
12,1701274308.6320205
60,269139926.16821605
688,717706469.7819098
2773,122351975.09422874
3016,0.0
3098,7689770671.044112
3122,7673653410.980554
3149,0.0
3213,16117260.063558586
2,5, 1, 5, 0, 8, 0.00,60.00,Thursday
12,2178120340.003992
60,807419778.5046484
688,717706469.7819098
2773,122351975.09422874
3016,0.0
3098,9066942978.563732
3122,9034610441.96468
3149,0.0
3213,32332536.599053003
2,5, 1, 5, 0, 9, 0.00,60.00,Thursday
12,4609321067.394106
60,2422259335.513945
688,1614839557.0092962
2773,122351975.09422874
3016,0.0
3098,6031059104.951741
3122,5965966114.222421
3149,0.0
3213,65092990.72932122
2,5, 1, 5, 0,10, 0.00,60.00,Thursday
12,4475073398.07739
60,2422259335.513945
688,1614839557.0092962
2773,122351975.09422874
3016,0.0
3098,4860938913.332182
3122,4787614893.555899
3149,0.0
3213,73324019.776284
2,5, 1, 5, 0,11, 0.00,60.00,Thursday
12,4297300451.09159
60,2422259335.513945
688,1614839557.0092962
2773,122351975.09422874
3016,0.0
3098,3974181382.277814
3122,3900837669.3618517
3149,0.0
3213,73343712.91596198
2,5, 1, 5, 0,12, 0.00,60.00,Thursday
12,4296276069.672888
60,2422259335.513945
688,1614839557.0092962
2773,122351975.09422874
3016,0.0
3098,3523953537.145976
3122,3433980438.240941
3149,0.0
3213,89973098.90503569
2,5, 1, 5, 0,13, 0.00,60.00,Thursday
12,4116286922.8200846
60,2422259335.513945
688,1435412939.5638196
2773,122355509.60288893
3016,0.0
3098,3262203965.8063874
3122,3163585864.7291093
3149,0.0
3213,98618101.07727863
2,5, 1, 5, 0,14, 0.00,60.00,Thursday
12,4294797464.4718227
60,2422259335.513945
688,1614839557.0092962
2773,122356737.59998244
3016,0.0
3098,2692287973.8456173
3122,2585597893.3716273
3149,0.0
3213,106690080.47398959
2,5, 1, 5, 0,15, 0.00,60.00,Thursday
12,4294021709.793849
60,2422259335.513945
688,1614839557.0092962
2773,122351975.09422874
3016,0.0
3098,2157037654.1827145
3122,2100106728.1213362
3149,0.0
3213,56930926.06137803
2,5, 1, 5, 0,16, 0.00,60.00,Thursday
12,4293758388.482834
60,2422259335.513945
688,1614839557.0092962
2773,122351975.09422874
3016,0.0
3098,2027965147.8975554
3122,1962934552.9825463
3149,0.0
3213,65030594.915008895
2,5, 1, 5, 0,17, 0.00,60.00,Thursday
12,4618053715.223406
60,2422259335.513945
688,1614839557.0092962
2773,122351975.09422874
3016,0.0
3098,2463899164.5008764
3122,2382217973.963769
3149,0.0
3213,81681190.53710726
2,5, 1, 5, 0,18, 0.00,60.00,Thursday
12,4106969275.72871
60,1883979483.1775124
688,1435412939.5638196
2773,122351975.09422874
3016,0.0
3098,3015847664.4602265
3122,2967232108.86815
3149,0.0
3213,48615555.59207639
2,5, 1, 5, 0,19, 0.00,60.00,Thursday
12,3210588823.517413
60,1345699630.8410807
688,1076559704.672864
2773,122351975.09422874
3016,0.0
3098,3534871390.789942
3122,3494430547.437933
3149,0.0
3213,40440843.35200918
2,5, 1, 5, 0,20, 0.00,60.00,Thursday
12,3123102100.080295
60,1345699630.8410807
688,1076559704.672864
2773,122351975.09422874
3016,0.0
3098,3826947594.140031
3122,3802721295.300999
3149,0.0
3213,24226298.839031756
2,5, 1, 5, 0,21, 0.00,60.00,Thursday
12,2406431431.9744525
60,807419778.5046484
688,897133087.2273873
2773,122351975.09422874
3016,0.0
3098,4469600430.723171
3122,4437297934.942153
3149,0.0
3213,32302495.781018645
2,5, 1, 5, 0,22, 0.00,60.00,Thursday
12,2319236467.4538765
60,807419778.5046484
688,897133087.2273873
2773,122351975.09422874
3016,0.0
3098,4925823255.096662
3122,4909700301.9054
3149,0.0
3213,16122953.191261882
2,5, 1, 5, 0,23, 0.00,60.00,Thursday
12,1431513653.5715363
60,269139926.16821605
688,717706469.7819098
2773,46280361.91631657
3016,0.0
3098,462731112.907907
3122,454644047.1263509
3149,0.0
3213,8087065.78155605
2,5, 1, 5, 0,24, 0.00,60.00,Thursday
12,1241575824.9261787
60,134569963.08410802
688,717706469.7819098
2773,77848927.60853347
3016,0.0
3098,1210826166.9976578
3122,1194724091.427782
3149,0.0
3213,16102075.5698756
2,6, 1, 6, 0, 1, 0.00,60.00,Friday
12,1216887964.3846622
60,134569963.08410802
688,717706469.7819098
2773,96147805.40499398
3016,0.0
3098,1790108271.052377
3122,1782021292.9372199
3149,0.0
3213,8086978.115157037
2,6, 1, 6, 0, 2, 0.00,60.00,Friday
12,1201160844.916758
60,134569963.08410802
688,717706469.7819098
2773,79777153.14618385
3016,0.0
3098,1942809970.736917
3122,1934722930.6893506
3149,0.0
3213,8087040.047566369
2,6, 1, 6, 0, 3, 0.00,60.00,Friday
12,1218177255.2287643
60,134569963.08410802
688,717706469.7819098
2773,96147805.40499398
3016,0.0
3098,2218757803.7192807
3122,2210670705.221211
3149,0.0
3213,8087098.498069915
2,6, 1, 6, 0, 4, 0.00,60.00,Friday
12,1202925602.4783273
60,134569963.08410802
688,717706469.7819098
2773,79777153.14618385
3016,0.0
3098,2489037013.210672
3122,2472934643.245098
3149,0.0
3213,16102369.965573937
2,6, 1, 6, 0, 5, 0.00,60.00,Friday
12,1263540568.466438
60,134569963.08410802