Program Version,EnergyPlus, Version 24.1.0-9d7789a3ac, YMD=2024.08.09 09:42
1,5,Environment Title[],Latitude[deg],Longitude[deg],Time Zone[],Elevation[m]
2,8,Day of Simulation[],Month[],Day of Month[],DST Indicator[1=yes 0=no],Hour[],StartMinute[],EndMinute[],DayType
3,5,Cumulative Day of Simulation[],Month[],Day of Month[],DST Indicator[1=yes 0=no],DayType  ! When Daily Meters Requested
4,2,Cumulative Days of Simulation[],Month[]  ! When Monthly Meters Requested
5,1,Cumulative Days of Simulation[] ! When Run Period Meters Requested
6,1,Calendar Year of Simulation[] ! When Annual Meters Requested
12,1,Electricity:Facility [J] !Hourly
2773,1,Fans:Electricity [J] !Hourly
3016,1,Cooling:Electricity [J] !Hourly
3149,1,Heating:Electricity [J] !Hourly
60,1,InteriorLights:Electricity [J] !Hourly
688,1,InteriorEquipment:Electricity [J] !Hourly
3098,1,NaturalGas:Facility [J] !Hourly
3122,1,Heating:NaturalGas [J] !Hourly
3213,1,Water Heater:WaterSystems:NaturalGas [J] !Hourly
14,9,Electricity:Facility [J] !Monthly [Value,Min,Day,Hour,Minute,Max,Day,Hour,Minute]
3100,9,NaturalGas:Facility [J] !Monthly [Value,Min,Day,Hour,Minute,Max,Day,Hour,Minute]
2864,9,Water:Facility [m3] !Monthly [Value,Min,Day,Hour,Minute,Max,Day,Hour,Minute]
1138,9,EnergyTransfer:Facility [J] !Monthly [Value,Min,Day,Hour,Minute,Max,Day,Hour,Minute]
2467,9,ElectricityPurchased:Facility [J] !Monthly [Value,Min,Day,Hour,Minute,Max,Day,Hour,Minute]
2516,9,ElectricitySurplusSold:Facility [J] !Monthly [Value,Min,Day,Hour,Minute,Max,Day,Hour,Minute]
2565,9,ElectricityNet:Facility [J] !Monthly [Value,Min,Day,Hour,Minute,Max,Day,Hour,Minute]
4031,9,Carbon Equivalent:Facility [kg] !Monthly [Value,Min,Day,Hour,Minute,Max,Day,Hour,Minute]
2392,9,PlantLoopHeatingDemand:Facility [J] !Monthly [Value,Min,Day,Hour,Minute,Max,Day,Hour,Minute]
2715,9,PlantLoopCoolingDemand:Facility [J] !Monthly [Value,Min,Day,Hour,Minute,Max,Day,Hour,Minute]
2913,9,MainsWater:Facility [m3] !Monthly [Value,Min,Day,Hour,Minute,Max,Day,Hour,Minute]
3709,9,WaterEnvironmentalFactors:Facility [L] !Monthly [Value,Min,Day,Hour,Minute,Max,Day,Hour,Minute]
3359,9,Source:Facility [J] !Monthly [Value,Min,Day,Hour,Minute,Max,Day,Hour,Minute]
3509,9,SO2:Facility [kg] !Monthly [Value,Min,Day,Hour,Minute,Max,Day,Hour,Minute]
3459,9,NOx:Facility [kg] !Monthly [Value,Min,Day,Hour,Minute,Max,Day,Hour,Minute]
3484,9,N2O:Facility [kg] !Monthly [Value,Min,Day,Hour,Minute,Max,Day,Hour,Minute]
3534,9,PM:Facility [kg] !Monthly [Value,Min,Day,Hour,Minute,Max,Day,Hour,Minute]
3584,9,PM2.5:Facility [kg] !Monthly [Value,Min,Day,Hour,Minute,Max,Day,Hour,Minute]
3559,9,PM10:Facility [kg] !Monthly [Value,Min,Day,Hour,Minute,Max,Day,Hour,Minute]
3409,9,CO:Facility [kg] !Monthly [Value,Min,Day,Hour,Minute,Max,Day,Hour,Minute]
3384,9,CO2:Facility [kg] !Monthly [Value,Min,Day,Hour,Minute,Max,Day,Hour,Minute]
3434,9,CH4:Facility [kg] !Monthly [Value,Min,Day,Hour,Minute,Max,Day,Hour,Minute]
3609,9,NH3:Facility [kg] !Monthly [Value,Min,Day,Hour,Minute,Max,Day,Hour,Minute]
3634,9,NMVOC:Facility [kg] !Monthly [Value,Min,Day,Hour,Minute,Max,Day,Hour,Minute]
3659,9,Hg:Facility [kg] !Monthly [Value,Min,Day,Hour,Minute,Max,Day,Hour,Minute]
3684,9,Pb:Facility [kg] !Monthly [Value,Min,Day,Hour,Minute,Max,Day,Hour,Minute]
3734,9,Nuclear High:Facility [kg] !Monthly [Value,Min,Day,Hour,Minute,Max,Day,Hour,Minute]
3759,9,Nuclear Low:Facility [m3] !Monthly [Value,Min,Day,Hour,Minute,Max,Day,Hour,Minute]
End of Data Dictionary
1,RUNPERIOD 1,  37.62,-122.40,  -8.00,   2.00
2,1, 1, 1, 0, 1, 0.00,60.00,Holiday
12,1017836977.9693947
60,134569963.08410802
688,538279852.336432
2773,78461147.76160836
3016,0.0
3098,674621768.5145491
3122,674549768.5145491
3149,0.0
3213,72000.0
2,1, 1, 1, 0, 2, 0.00,60.00,Holiday
12,1007275595.2132325
60,134569963.08410802
688,538279852.336432
2773,67987183.9367148
3016,0.0
3098,597968561.650495
3122,589888938.24243
3149,0.0
3213,8079623.408065116
2,1, 1, 1, 0, 3, 0.00,60.00,Holiday
12,1024665117.5756938
60,134569963.08410802
688,538279852.336432
2773,84983979.92089349
3016,0.0
3098,906235836.434304
3122,898156204.968097
3149,0.0
3213,8079631.466207017
2,1, 1, 1, 0, 4, 0.00,60.00,Holiday
12,1143630906.3760936
60,134569963.08410802
688,538279852.336432
2773,67987183.9367148
3016,5742.485103414217
3098,772502223.733976
3122,764421823.1452522
3149,0.0
3213,8080400.588723769
2,1, 1, 1, 0, 5, 0.00,60.00,Holiday
12,1069281690.8470081
60,134569963.08410802
688,538279852.336432
2773,84983979.92089349
3016,0.0
3098,1249515212.0261202
3122,1241434804.7735827
3149,0.0
3213,8080407.252537663
2,1, 1, 1, 0, 6, 0.00,60.00,Holiday
12,1140067970.728452
60,134569963.08410802
688,538279852.336432
2773,67987183.9367148
3016,0.0
3098,1010507292.2730234
3122,1002417634.5663383
3149,0.0
3213,8089657.7066852115
2,1, 1, 1, 0, 7, 0.00,60.00,Holiday
12,1333533823.1928678
60,134569963.08410802
688,538279852.336432
2773,84983979.92089349
3016,0.0
3098,1291714346.591655
3122,1283633893.914512
3149,0.0
3213,8080452.677143158
2,1, 1, 1, 0, 8, 0.00,60.00,Holiday
12,1255975811.189588
60,134569963.08410802
688,538279852.336432
2773,67987183.9367148
3016,0.0
3098,878369042.399752
3122,870288565.9745597
3149,0.0
3213,8080476.425192418
2,1, 1, 1, 0, 9, 0.00,60.00,Holiday
12,1198868614.919146
60,134569963.08410802
688,538279852.336432
2773,84983979.92089349
3016,0.0
3098,716381807.2122324
3122,708301311.8933827
3149,0.0
3213,8080495.318849692
2,1, 1, 1, 0,10, 0.00,60.00,Holiday
12,1049250079.6060781
60,134569963.08410802
688,538279852.336432
2773,67987183.9367148
3016,0.0
3098,308517240.92363775
3122,300436739.07312036
3149,0.0
3213,8080501.850517363
2,1, 1, 1, 0,11, 0.00,60.00,Holiday
12,890219297.3542148
60,134569963.08410802
688,538279852.336432
2773,84983979.92089349
3016,0.0
3098,309830965.9996125
3122,309758965.9996125
3149,0.0
3213,72000.0
2,1, 1, 1, 0,12, 0.00,60.00,Holiday
12,873065121.2975547
60,134569963.08410802
688,538279852.336432
2773,67987183.9367148
3016,0.0
3098,208452023.33523273
3122,192352039.8770552
3149,0.0
3213,16099983.458177548
2,1, 1, 1, 0,13, 0.00,60.00,Holiday
12,811812281.71243
60,134569963.08410802
688,538279852.336432
2773,6897155.859658495
3016,0.0
3098,58564953.06405857
3122,50478296.37191178
3149,0.0
3213,8086656.6921467865
2,1, 1, 1, 0,14, 0.00,60.00,Holiday
12,810406612.6890894
60,134569963.08410802
688,538279852.336432
2773,5517724.687726796
3016,0.0
3098,38326277.936859496
3122,22206715.877112217
3149,0.0
3213,16119562.059747275
2,1, 1, 1, 0,15, 0.00,60.00,Holiday
12,833037864.7583252
60,134569963.08410802
688,538279852.336432
2773,4138293.5157950968
3016,499916.33877645
3098,17256595.04698257
3122,9171575.016508713
3149,0.0
3213,8085020.030473858
2,1, 1, 1, 0,16, 0.00,60.00,Holiday
12,804856316.2112818
60,134569963.08410802
688,538279852.336432
2773,0.0
3016,0.0
3098,8080230.484558231
3122,0.0
3149,0.0
3213,8080230.484558231
2,1, 1, 1, 0,17, 0.00,60.00,Holiday
12,1021270128.5138574
60,134569963.08410802
688,538279852.336432
2773,3448577.9298292473
3016,0.0
3098,16063370.0747823
3122,7982973.25873295
3149,0.0
3213,8080396.816049351
2,1, 1, 1, 0,18, 0.00,60.00,Holiday
12,1343272838.2956634
60,134569963.08410802
688,538279852.336432
2773,8641197.650176195
3016,0.0
3098,39758791.12290277
3122,31678260.749990612
3149,0.0
3213,8080530.372912162
2,1, 1, 1, 0,19, 0.00,60.00,Holiday
12,1411950341.6960251
60,134569963.08410802
688,538279852.336432
2773,77175297.51477
3016,0.0
3098,168860686.7073999
3122,168788686.7073999
3149,0.0
3213,72000.0
2,1, 1, 1, 0,20, 0.00,60.00,Holiday
12,1314805557.9381442
60,134569963.08410802
688,538279852.336432
2773,67987183.9367148
3016,0.0
3098,223285307.39661387
3122,215204770.46568665
3149,0.0
3213,8080536.930927207
2,1, 1, 1, 0,21, 0.00,60.00,Holiday
12,1331951493.6245387
60,134569963.08410802
688,538279852.336432
2773,84983979.92089349
3016,0.0
3098,372961536.36008227
3122,364881754.37522036
3149,0.0
3213,8079781.984861891
2,1, 1, 1, 0,22, 0.00,60.00,Holiday
12,1226974507.047333
60,134569963.08410802
688,538279852.336432
2773,67987183.9367148
3016,0.0
3098,390049136.30119383
3122,373942257.9873002
3149,0.0
3213,16106878.313893609
2,1, 1, 1, 0,23, 0.00,60.00,Holiday
12,1156128790.1758788
60,134569963.08410802
688,538279852.336432
2773,84983979.92089349
3016,0.0
3098,520748808.25597256
3122,520676808.25597256
3149,0.0
3213,72000.0
2,1, 1, 1, 0,24, 0.00,60.00,Holiday
12,1051260234.9753106
60,134569963.08410802
688,538279852.336432
2773,67987183.9367148
3016,0.0
3098,609047019.7113769
3122,600966579.4523519
3149,0.0
3213,8080440.25902489
2,2, 1, 2, 0, 1, 0.00,60.00,Monday
12,1203670011.8511162
60,134569963.08410802
688,717706469.7819098
2773,84983979.92089349
3016,0.0
3098,579074877.1116662
3122,570991939.0257521
3149,0.0
3213,8082938.085914173
2,2, 1, 2, 0, 2, 0.00,60.00,Monday
12,1186739592.8181782
60,134569963.08410802
688,717706469.7819098
2773,67987183.9367148
3016,0.0
3098,635382660.6854072
3122,627299176.0074762
3149,0.0
3213,8083484.67793091
2,2, 1, 2, 0, 3, 0.00,60.00,Monday
12,1204070950.8933005
60,134569963.08410802
688,717706469.7819098
2773,84983979.92089349
3016,0.0
3098,883151526.648706
3122,875068033.5372287
3149,0.0
3213,8083493.11147732
2,2, 1, 2, 0, 4, 0.00,60.00,Monday
12,1187373418.3204288
60,134569963.08410802
688,717706469.7819098
2773,67987183.9367148
3016,0.0
3098,1014164848.3992722
3122,1006081258.766155
3149,0.0
3213,8083589.633117198
2,2, 1, 2, 0, 5, 0.00,60.00,Monday
12,1293865249.3258615
60,134569963.08410802
688,717706469.7819098
2773,84983979.92089349
3016,1121.9144304509575
3098,1056462398.7413335
3122,1048379465.8734957
3149,0.0
3213,8082932.867837681
2,2, 1, 2, 0, 6, 0.00,60.00,Monday
12,1453793271.6569703
60,269139926.16821605
688,717706469.7819098
2773,67987183.9367148
3016,0.0
3098,895428182.2034993
3122,879316315.7077546
3149,0.0
3213,16111866.49574479
2,2, 1, 2, 0, 7, 0.00,60.00,Monday
12,1723176925.7005074
60,269139926.16821605
688,717706469.7819098
2773,115907078.62524383
3016,2733.5187447642556
3098,6850148877.619485
3122,6842059577.386584
3149,0.0
3213,8089300.2329012295
2,2, 1, 2, 0, 8, 0.00,60.00,Monday
12,2195975809.078919
60,807419778.5046484
688,717706469.7819098
2773,115907078.62524383
3016,819.6528632666351
3098,5900747710.510032
3122,5868463237.095047
3149,0.0
3213,32284473.41498408
2,2, 1, 2, 0, 9, 0.00,60.00,Monday
12,4601709218.293503
60,2422259335.513945
688,1614839557.0092962
2773,115907078.62524383
3016,0.0
3098,3755653687.621873
3122,3698859502.945903
3149,0.0
3213,56794184.67596994
2,2, 1, 2, 0,10, 0.00,60.00,Monday
12,4464983855.346299
60,2422259335.513945
688,1614839557.0092962
2773,115907078.62524383
3016,0.0
3098,2431836185.319643
3122,2374989858.198745
3149,0.0
3213,56846327.1208985
2,2, 1, 2, 0,11, 0.00,60.00,Monday
12,4599349177.501423
60,2422259335.513945
688,1614839557.0092962
2773,115907078.62524383
3016,144773653.67272052
3098,1795733515.3240786
3122,1738863123.2181652
3149,0.0
3213,56870392.10591311
2,2, 1, 2, 0,12, 0.00,60.00,Monday
12,4963281161.334501
60,2422259335.513945
688,1614839557.0092962
2773,116166137.20004825
3016,390857397.681626
3098,1458696994.4259357
3122,1385376585.949309
3149,0.0
3213,73320408.47662663
2,2, 1, 2, 0,13, 0.00,60.00,Monday
12,4800689789.296133
60,2422259335.513945
688,1435412939.5638196
2773,117383060.55538136
3016,406262137.2568112
3098,1618397567.2654464
3122,1536624164.598751
3149,0.0
3213,81773402.66669539
2,2, 1, 2, 0,14, 0.00,60.00,Monday
12,4982943951.285973
60,2422259335.513945
688,1614839557.0092962
2773,116323982.24378756
3016,411266262.2603152
3098,809501150.8909007
3122,727824248.75608
3149,0.0
3213,81676902.13482063
2,2, 1, 2, 0,15, 0.00,60.00,Monday
12,4678284603.495033
60,2422259335.513945
688,1614839557.0092962
2773,116054794.09508343
3016,160046514.26992202
3098,519137175.3895971
3122,470478199.0069154
3149,0.0
3213,48658976.3826817
2,2, 1, 2, 0,16, 0.00,60.00,Monday
12,4548770396.889389
60,2422259335.513945
688,1614839557.0092962
2773,115907078.62524383
3016,34727988.341325514
3098,419415770.089927
3122,370765068.13503534
3149,0.0
3213,48650701.95489168
2,2, 1, 2, 0,17, 0.00,60.00,Monday
12,4548298130.697313
60,2422259335.513945
688,1614839557.0092962
2773,115907078.62524383
3016,3997323.9652632084
3098,747821645.3382735
3122,675101023.3426845
3149,0.0
3213,72720621.9955891
2,2, 1, 2, 0,18, 0.00,60.00,Monday
12,4098216067.5687804
60,1883979483.1775124
688,1435412939.5638196
2773,115907078.62524383
3016,0.0
3098,1041730816.0191271
3122,1008846471.8960273
3149,0.0
3213,32884344.123099755
2,2, 1, 2, 0,19, 0.00,60.00,Monday
12,3201992642.245533
60,1345699630.8410807
688,1076559704.672864
2773,115907078.62524383
3016,0.0
3098,1743446380.045212
3122,1711139566.6150017
3149,0.0
3213,32306813.430210117
2,2, 1, 2, 0,20, 0.00,60.00,Monday
12,3114089556.65936
60,1345699630.8410807
688,1076559704.672864
2773,115907078.62524383
3016,0.0
3098,1779110469.643583
3122,1754915416.026958
3149,0.0
3213,24195053.616625443
2,2, 1, 2, 0,21, 0.00,60.00,Monday
12,2397529116.136347
60,807419778.5046484
688,897133087.2273873
2773,115907078.62524383
3016,0.0
3098,2471282902.1069665
3122,2447069370.0734615
3149,0.0
3213,24213532.03350521
2,2, 1, 2, 0,22, 0.00,60.00,Monday
12,2309814374.2453413
60,807419778.5046484
688,897133087.2273873
2773,115907078.62524383
3016,0.0
3098,2574882720.600397
3122,2558770577.7381277
3149,0.0
3213,16112142.862269096
2,2, 1, 2, 0,23, 0.00,60.00,Monday
12,1384596496.700246
60,269139926.16821605
688,717706469.7819098
2773,0.0
3016,0.0
3098,8083210.949095942
3122,0.0
3149,0.0
3213,8083210.949095942
2,2, 1, 2, 0,24, 0.00,60.00,Monday
12,1162026711.241887
60,134569963.08410802
688,717706469.7819098
2773,0.0
3016,0.0
3098,8083487.299614767
3122,0.0
3149,0.0
3213,8083487.299614767
2,3, 1, 3, 0, 1, 0.00,60.00,Tuesday
12,1118026801.1553779
60,134569963.08410802
688,717706469.7819098
2773,0.0
3016,0.0
3098,8082658.417118958
3122,0.0
3149,0.0
3213,8082658.417118958
2,3, 1, 3, 0, 2, 0.00,60.00,Tuesday
12,1118026801.182774
60,134569963.08410802
688,717706469.7819098
2773,0.0
3016,0.0
3098,8082940.884302107
3122,0.0
3149,0.0
3213,8082940.884302107
2,3, 1, 3, 0, 3, 0.00,60.00,Tuesday
12,1118026801.7843099
60,134569963.08410802
688,717706469.7819098
2773,0.0
3016,0.0
3098,8083221.595307879
3122,0.0
3149,0.0
3213,8083221.595307879
2,3, 1, 3, 0, 4, 0.00,60.00,Tuesday
12,1118026802.4706187
60,134569963.08410802
688,717706469.7819098
2773,0.0
3016,0.0
3098,8083501.705859858
3122,0.0
3149,0.0
3213,8083501.705859858
2,3, 1, 3, 0, 5, 0.00,60.00,Tuesday
12,1162026714.6004515
60,134569963.08410802
688,717706469.7819098
2773,0.0
3016,0.0
3098,8082669.3739264095
3122,0.0
3149,0.0
3213,8082669.3739264095
2,3, 1, 3, 0, 6, 0.00,60.00,Tuesday
12,1384601574.9302013
60,269139926.16821605
688,717706469.7819098
2773,0.0
3016,0.0
3098,16112624.019670825
3122,0.0
3149,0.0
3213,16112624.019670825
2,3, 1, 3, 0, 7, 0.00,60.00,Tuesday
12,1683826080.1644344
60,269139926.16821605
688,717706469.7819098
2773,115907078.62524383
3016,0.0
3098,3923600896.3624477
3122,3915511409.216313
3149,0.0
3213,8089487.146134486
2,3, 1, 3, 0, 8, 0.00,60.00,Tuesday
12,2160159824.0627813
60,807419778.5046484
688,717706469.7819098
2773,115907078.62524383
3016,0.0
3098,3261938263.460826
3122,3229654633.287827
3149,0.0
3213,32283630.172999464
2,3, 1, 3, 0, 9, 0.00,60.00,Tuesday
12,4594354946.013267
60,2422259335.513945
688,1614839557.0092962
2773,115907078.62524383
3016,0.0
3098,1039067492.977501
3122,982274271.6616824
3149,0.0
3213,56793221.31581877
2,3, 1, 3, 0,10, 0.00,60.00,Tuesday
12,4716702583.415241
60,2422259335.513945
688,1614839557.0092962
2773,115907078.62524383
3016,70445633.20040114
3098,572572542.6161374
3122,515727222.2096926
3149,0.0
3213,56845320.40644484
2,3, 1, 3, 0,11, 0.00,60.00,Tuesday
12,4583207123.15835
60,2422259335.513945
688,1614839557.0092962
2773,115907078.62524383
3016,68026282.60738453
3098,482705085.1600516
3122,425839302.8154488
3149,0.0
3213,56865782.344602756
2,3, 1, 3, 0,12, 0.00,60.00,Tuesday
12,4937594474.765432
60,2422259335.513945
688,1614839557.0092962
2773,115933820.81310341
3016,367599566.0767813
3098,454207291.9894326
3122,380882317.43669283
3149,0.0
3213,73324974.55273962
2,3, 1, 3, 0,13, 0.00,60.00,Tuesday
12,5255408806.3234415
60,2422259335.513945
688,1435412939.5638196
2773,117390125.82986522
3016,851969746.0367712
3098,459460423.75149465
3122,377680697.50969106
3149,0.0
3213,81779726.2418036
2,3, 1, 3, 0,14, 0.00,60.00,Tuesday
12,5664353278.913036
60,2422259335.513945
688,1614839557.0092962
2773,121064444.401767
3016,1074328571.3365188
3098,206020298.0613049
3122,124342613.03344159
3149,0.0
3213,81677685.02786332
2,3, 1, 3, 0,15, 0.00,60.00,Tuesday
12,5708523852.86888
60,2422259335.513945
688,1614839557.0092962
2773,117612966.73074749
3016,1120624556.581613
3098,117793662.18037446
3122,69134269.86177367
3149,0.0
3213,48659392.31860081
2,3, 1, 3, 0,16, 0.00,60.00,Tuesday
12,5272619011.079968
60,2422259335.513945
688,1614839557.0092962
2773,115907078.62524383
3016,695442490.579309
3098,146994694.50148067
3122,98343202.15037514
3149,0.0
3213,48651492.35110552
2,3, 1, 3, 0,17, 0.00,60.00,Tuesday
12,5174659271.689338
60,2422259335.513945
688,1614839557.0092962
2773,115907078.62524383
3016,391054244.82708216
3098,350676615.3039042
3122,277432506.76453865
3149,0.0
3213,73244108.53936556
2,3, 1, 3, 0,18, 0.00,60.00,Tuesday
12,4588280112.288486
60,1883979483.1775124
688,1435412939.5638196
2773,115907078.62524383
3016,210643633.45301044
3098,527756573.5669735
3122,495391983.51058865
3149,0.0
3213,32364590.056384902
2,3, 1, 3, 0,19, 0.00,60.00,Tuesday
12,3450960198.982929
60,1345699630.8410807
688,1076559704.672864
2773,115907078.62524383
3016,22339855.494996253
3098,855908291.8147268
3122,823600909.0516076
3149,0.0
3213,32307382.763119113
2,3, 1, 3, 0,20, 0.00,60.00,Tuesday
12,3113007166.902487
60,1345699630.8410807
688,1076559704.672864
2773,115907078.62524383
3016,0.0
3098,988556384.0733773
3122,964360892.4230825
3149,0.0
3213,24195491.65029489
2,3, 1, 3, 0,21, 0.00,60.00,Tuesday
12,2395744248.5899596
60,807419778.5046484
688,897133087.2273873
2773,115907078.62524383
3016,0.0
3098,1322393073.9659472
3122,1290134089.255098
3149,0.0
3213,32258984.710849054
2,3, 1, 3, 0,22, 0.00,60.00,Tuesday
12,2307934499.128587
60,807419778.5046484
688,897133087.2273873
2773,115907078.62524383
3016,0.0
3098,1409051999.8525345
3122,1400960434.3014517
3149,0.0
3213,8091565.551082816
2,3, 1, 3, 0,23, 0.00,60.00,Tuesday
12,1384596499.7096663
60,269139926.16821605
688,717706469.7819098
2773,0.0
3016,0.0
3098,8083370.932518628
3122,0.0
3149,0.0
3213,8083370.932518628
2,3, 1, 3, 0,24, 0.00,60.00,Tuesday
12,1162026713.349074
60,134569963.08410802
688,717706469.7819098
2773,0.0
3016,0.0
3098,8082514.013725718
3122,0.0
3149,0.0
3213,8082514.013725718
2,4, 1, 4, 0, 1, 0.00,60.00,Wednesday
12,1118026802.9790175
60,134569963.08410802
688,717706469.7819098
2773,0.0
3016,0.0
3098,8082799.697243298
3122,0.0
3149,0.0
3213,8082799.697243298
2,4, 1, 4, 0, 2, 0.00,60.00,Wednesday
12,1118026803.5203278
60,134569963.08410802
688,717706469.7819098
2773,0.0
3016,0.0
3098,8083087.028549235
3122,0.0
3149,0.0
3213,8083087.028549235
2,4, 1, 4, 0, 3, 0.00,60.00,Wednesday
12,1118026804.2140555
60,134569963.08410802
688,717706469.7819098
2773,0.0
3016,0.0
3098,8083371.854333581
3122,0.0
3149,0.0
3213,8083371.854333581
2,4, 1, 4, 0, 4, 0.00,60.00,Wednesday
12,1118026804.7881851
60,134569963.08410802
688,717706469.7819098
2773,0.0
3016,0.0
3098,8082544.399044721
3122,0.0
3149,0.0
3213,8082544.399044721
2,4, 1, 4, 0, 5, 0.00,60.00,Wednesday
12,1163429392.4926765
60,134569963.08410802
688,717706469.7819098
2773,1379431.171931699
3016,0.0
3098,26610394.36758712
3122,18527567.222419936
3149,0.0
3213,8082827.145167185
2,4, 1, 4, 0, 6, 0.00,60.00,Wednesday
12,1391551922.7424462
60,269139926.16821605
688,717706469.7819098
2773,6897155.859658495
3016,0.0
3098,58469069.981610276
3122,42356098.46570791
3149,0.0
3213,16112971.515902368
2,4, 1, 4, 0, 7, 0.00,60.00,Wednesday
12,1683021566.1544368
60,269139926.16821605
688,717706469.7819098
2773,115907078.62524383
3016,0.0
3098,3375651064.4969
3122,3367561402.965217
3149,0.0
3213,8089661.531682769
2,4, 1, 4, 0, 8, 0.00,60.00,Wednesday
12,2196096367.4692464
60,807419778.5046484
688,717706469.7819098
2773,115907078.62524383
3016,0.0
3098,2725071380.6521974
3122,2692786911.5579844
3149,0.0
3213,32284469.094212994
2,4, 1, 4, 0, 9, 0.00,60.00,Wednesday
12,4594723710.471859
60,2422259335.513945
688,1614839557.0092962
2773,115907078.62524383
3016,0.0
3098,1331162950.777715
3122,1274367924.7981706
3149,0.0
3213,56795025.979544386
2,4, 1, 4, 0,10, 0.00,60.00,Wednesday
12,4462330951.896179
60,2422259335.513945
688,1614839557.0092962
2773,115907078.62524383
3016,0.0
3098,1120040419.3578458
3122,1063192983.2519872
3149,0.0
3213,56847436.105858386
2,4, 1, 4, 0,11, 0.00,60.00,Wednesday
12,4285962404.6541567
60,2422259335.513945
688,1614839557.0092962
2773,115907078.62524383
3016,0.0
3098,839299860.3113056
3122,782427666.6741076
3149,0.0
3213,56872193.63719809
2,4, 1, 4, 0,12, 0.00,60.00,Wednesday
12,4285651057.801008
60,2422259335.513945
688,1614839557.0092962
2773,115907078.62524383
3016,0.0
3098,582643764.041013
3122,509320382.07371354
3149,0.0
3213,73323381.96729943
2,4, 1, 4, 0,13, 0.00,60.00,Wednesday
12,4106230608.98615
60,2422259335.513945
688,1435412939.5638196
2773,115907078.62524383
3016,0.0
3098,587486696.6534958
3122,505713690.1976023
3149,0.0
3213,81773006.45589356
2,4, 1, 4, 0,14, 0.00,60.00,Wednesday
12,4285379392.966057
60,2422259335.513945
688,1614839557.0092962
2773,115928599.92807928
3016,0.0
3098,324800623.4990979
3122,243119129.7578092
3149,0.0
3213,81681493.74128868
2,4, 1, 4, 0,15, 0.00,60.00,Wednesday
12,4285308765.5321712
60,2422259335.513945
688,1614839557.0092962
2773,115907078.62524383
3016,0.0
3098,284253085.05294615
3122,235590411.57461932
3149,0.0
3213,48662673.47832679
2,4, 1, 4, 0,16, 0.00,60.00,Wednesday
12,4285359170.971262
60,2422259335.513945
688,1614839557.0092962
2773,115907078.62524383
3016,0.0
3098,338668730.5437145
3122,290014020.2569436
3149,0.0
3213,48654710.28677098
2,4, 1, 4, 0,17, 0.00,60.00,Wednesday
12,4498571216.57326
60,2422259335.513945
688,1614839557.0092962
2773,115907078.62524383
3016,0.0
3098,591079958.3989644
3122,517839840.73833144
3149,0.0
3213,73240117.66063303
2,4, 1, 4, 0,18, 0.00,60.00,Wednesday
12,4097946829.1509643
60,1883979483.1775124
688,1435412939.5638196
2773,115907078.62524383
3016,0.0
3098,843057643.7036419
3122,810690850.3060265
3149,0.0
3213,32366793.39761542
2,4, 1, 4, 0,19, 0.00,60.00,Wednesday
12,3201227126.849378
60,1345699630.8410807
688,1076559704.672864
2773,115907078.62524383
3016,0.0
3098,1173112687.156944
3122,1140803077.6213388
3149,0.0
3213,32309609.535605088
2,4, 1, 4, 0,20, 0.00,60.00,Wednesday
12,3113359065.3638883
60,1345699630.8410807
688,1076559704.672864
2773,115907078.62524383
3016,0.0
3098,1238561052.5801024
3122,1214363870.0091374
3149,0.0
3213,24197182.570964932
2,4, 1, 4, 0,21, 0.00,60.00,Wednesday
12,2396057334.299424
60,807419778.5046484
688,897133087.2273873
2773,115907078.62524383
3016,0.0
3098,1515414723.9397738
3122,1483156941.5295281
3149,0.0
3213,32257782.410245914
2,4, 1, 4, 0,22, 0.00,60.00,Wednesday
12,2308199048.685292
60,807419778.5046484
688,897133087.2273873
2773,115907078.62524383
3016,0.0
3098,1561744357.9294224
3122,1553652219.3425372
3149,0.0
3213,8092138.586885213
2,4, 1, 4, 0,23, 0.00,60.00,Wednesday
12,1384596502.8169923
60,269139926.16821605
688,717706469.7819098
2773,0.0
3016,0.0
3098,8083384.577177096
3122,0.0
3149,0.0
3213,8083384.577177096
2,4, 1, 4, 0,24, 0.00,60.00,Wednesday
12,1162026715.6178715
60,134569963.08410802
688,717706469.7819098
2773,0.0
3016,0.0
3098,8083085.10248033
3122,0.0
3149,0.0
3213,8083085.10248033
2,5, 1, 5, 0, 1, 0.00,60.00,Thursday
12,1118026806.261638
60,134569963.08410802
688,717706469.7819098
2773,0.0
3016,0.0
3098,8083376.095363231
3122,0.0
3149,0.0
3213,8083376.095363231
2,5, 1, 5, 0, 2, 0.00,60.00,Thursday
12,1118026806.8363774
60,134569963.08410802
688,717706469.7819098
2773,0.0
3016,0.0
3098,8082554.465119001
3122,0.0
3149,0.0
3213,8082554.465119001
2,5, 1, 5, 0, 3, 0.00,60.00,Thursday
12,1118026806.6457734
60,134569963.08410802
688,717706469.7819098
2773,0.0
3016,0.0
3098,8082841.8085836675
3122,0.0
3149,0.0
3213,8082841.8085836675
2,5, 1, 5, 0, 4, 0.00,60.00,Thursday
12,1122210480.2945948
60,134569963.08410802
688,717706469.7819098
2773,4138293.5157950968
3016,0.0
3098,43084075.33472565
3122,35000944.94696061
3149,0.0
3213,8083130.387765035
2,5, 1, 5, 0, 5, 0.00,60.00,Thursday
12,1169042929.9473011
60,134569963.08410802
688,717706469.7819098
2773,6897155.859658495
3016,0.0
3098,106839501.30643058
3122,90745440.97837003
3149,0.0
3213,16094060.328060538
2,5, 1, 5, 0, 6, 0.00,60.00,Thursday
12,1390230228.2239225
60,269139926.16821605
688,717706469.7819098
2773,5517724.687726796
3016,0.0
3098,90615147.10575555
3122,82523541.30918549
3149,0.0
3213,8091605.796570063
2,5, 1, 5, 0, 7, 0.00,60.00,Thursday
12,1683739500.871229
60,269139926.16821605
688,717706469.7819098
2773,115907078.62524383
3016,0.0
3098,3399590718.7374463
3122,3383484965.5780897
3149,0.0
3213,16105753.159356713
2,5, 1, 5, 0, 8, 0.00,60.00,Thursday
12,2196236680.378527
60,807419778.5046484
688,717706469.7819098
2773,115907078.62524383
3016,0.0
3098,2622239624.794471
3122,2598011042.9840865
3149,0.0
3213,24228581.810384464
2,5, 1, 5, 0, 9, 0.00,60.00,Thursday
12,4594836126.632821
60,2422259335.513945
688,1614839557.0092962
2773,115907078.62524383
3016,0.0
3098,1378591429.7483003
3122,1321807136.1073835
3149,0.0
3213,56784293.64091645
2,5, 1, 5, 0,10, 0.00,60.00,Thursday
12,4462217282.867109
60,2422259335.513945
688,1614839557.0092962
2773,115907078.62524383
3016,0.0
3098,1022274404.2521865
3122,965429014.2044737
3149,0.0
3213,56845390.04771286
2,5, 1, 5, 0,11, 0.00,60.00,Thursday
12,4285765906.0268946
60,2422259335.513945
688,1614839557.0092962
2773,115907078.62524383
3016,0.0
3098,660728899.3881853
3122,603858758.9561627
3149,0.0
3213,56870140.43202267
2,5, 1, 5, 0,12, 0.00,60.00,Thursday
12,4285912855.3464284
60,2422259335.513945
688,1614839557.0092962
2773,116107197.08499502
3016,0.0
3098,630479851.5448698
3122,557148461.2868824
3149,0.0
3213,73331390.25798729
2,5, 1, 5, 0,13, 0.00,60.00,Thursday
12,4110849215.618488
60,2422259335.513945
688,1435412939.5638196
2773,120400889.25047523
3016,0.0
3098,690493617.2318136
3122,608710949.7773649
3149,0.0
3213,81782667.45444864
2,5, 1, 5, 0,14, 0.00,60.00,Thursday
12,4295483359.719866
60,2422259335.513945
688,1614839557.0092962
2773,125996609.02994211
3016,0.0
3098,356049567.8011501
3122,274357459.4977696
3149,0.0
3213,81692108.30338044
2,5, 1, 5, 0,15, 0.00,60.00,Thursday
12,4316264791.912899
60,2422259335.513945
688,1614839557.0092962
2773,123436648.98941986
3016,1148.643585119064
3098,205567332.94478625
3122,156898807.73407358
3149,0.0
3213,48668525.21071264
2,5, 1, 5, 0,16, 0.00,60.00,Thursday
12,4286914590.833371
60,2422259335.513945
688,1614839557.0092962
2773,117575222.49511746
3016,0.0
3098,236093018.2879105
3122,179347742.9172389
3149,0.0
3213,56745275.3706716
2,5, 1, 5, 0,17, 0.00,60.00,Thursday
12,4498394048.504477
60,2422259335.513945
688,1614839557.0092962
2773,115907078.62524383
3016,0.0
3098,414438040.63893265
3122,349325960.6821214
3149,0.0
3213,65112079.9568112
2,5, 1, 5, 0,18, 0.00,60.00,Thursday
12,4097720085.024431
60,1883979483.1775124
688,1435412939.5638196
2773,115907078.62524383
3016,0.0
3098,648712004.0193368
3122,608274423.111352
3149,0.0
3213,40437580.907984845
2,5, 1, 5, 0,19, 0.00,60.00,Thursday
12,3200961583.5964403
60,1345699630.8410807
688,1076559704.672864
2773,115907078.62524383
3016,0.0
3098,956643263.606393
3122,924337946.1726899
3149,0.0
3213,32305317.43370292
2,5, 1, 5, 0,20, 0.00,60.00,Thursday
12,3113118702.169304
60,1345699630.8410807
688,1076559704.672864
2773,115907078.62524383
3016,0.0
3098,1063283855.5966103
3122,1039093488.6651118
3149,0.0
3213,24190366.931498453
2,5, 1, 5, 0,21, 0.00,60.00,Thursday
12,2395858224.4778004
60,807419778.5046484
688,897133087.2273873
2773,115907078.62524383
3016,0.0
3098,1384762763.1513186
3122,1360552727.5247388
3149,0.0
3213,24210035.626579612
2,5, 1, 5, 0,22, 0.00,60.00,Thursday
12,2308044801.980717
60,807419778.5046484
688,897133087.2273873
2773,115907078.62524383
3016,0.0
3098,1475564395.8043444
3122,1467472889.0728467
3149,0.0
3213,8091506.731497846
2,5, 1, 5, 0,23, 0.00,60.00,Thursday
12,1384596506.4712112
60,269139926.16821605
688,717706469.7819098
2773,0.0
3016,0.0
3098,8083459.185430587
3122,0.0
3149,0.0
3213,8083459.185430587
2,5, 1, 5, 0,24, 0.00,60.00,Thursday
12,1162026719.0811973
60,134569963.08410802
688,717706469.7819098
2773,0.0
3016,0.0
3098,8083033.0387934605
3122,0.0
3149,0.0
3213,8083033.0387934605
2,6, 1, 6, 0, 1, 0.00,60.00,Friday
12,1118026809.7302094
60,134569963.08410802
688,717706469.7819098
2773,0.0
3016,0.0
3098,8083326.204258209
3122,0.0
3149,0.0
3213,8083326.204258209
2,6, 1, 6, 0, 2, 0.00,60.00,Friday
12,1118026808.1080432
60,134569963.08410802
688,717706469.7819098
2773,0.0
3016,0.0
3098,16094421.398699855
3122,0.0
3149,0.0
3213,16094421.398699855
2,6, 1, 6, 0, 3, 0.00,60.00,Friday
12,1118026808.0469003
60,134569963.08410802
688,717706469.7819098
2773,0.0
3016,0.0
3098,8083091.839862087
3122,0.0
3149,0.0
3213,8083091.839862087
2,6, 1, 6, 0, 4, 0.00,60.00,Friday
12,1122190547.268985
60,134569963.08410802
688,717706469.7819098
2773,4138293.5157950968
3016,0.0
3098,28326765.038535796
3122,20243380.401314355
3149,0.0
3213,8083384.63722144
2,6, 1, 6, 0, 5, 0.00,60.00,Friday
12,1167590812.253316
60,134569963.08410802
688,717706469.7819098
2773,5517724.687726796
3016,0.0
3098,45368285.895895556
3122,37284786.857874915
3149,0.0
3213,8083499.038020643
2,6, 1, 6, 0, 6, 0.00,60.00,Friday
12,1391564043.3920317
60,269139926.16821605
688,717706469.7819098
2773,6897155.859658495
3016,0.0
3098,61215702.84160938
3122,53122912.82022222
3149,0.0
3213,8092790.021387154
2,6, 1, 6, 0, 7, 0.00,60.00,Friday
12,1682812644.320502
60,269139926.16821605
688,717706469.7819098